                         Program Version 5.0.4 -  RELEASE  -
|  1> # put your comments here
|  2> %pal nprocs 6 end
|  3> ! PBE def2-svp OPT FREQ D3BJ DEFGRID3
|  4> %scf MaxIter 800 end
|  5> %output
|  6> Print [P_Hirshfeld] 1
|  7> end
|  8> %MaxCore 1500
|  9> %geom
| 10> MaxIter 3000
| 11> TolE 1e-6 #TolE 5e-6 Energy change (a.u.)
| 12> TolRMSG 3e-5 #TolRMSG 1e-4 RMS gradient (a.u.)
| 13> TolMaxG 1e-4 #TolMaxG 3e-3 Max. element of gradient (a.u.)
| 14> TolRMSD 2e-3 #TolRMSD 2e-3 RMS displacement (a.u.)
| 15> TolMaxD 4e-3 #TolMaxD 4e-3 Max. displacement (a.u.)
| 16> end
| 17> * xyz 0 1
| 18>  C        -1.300829         0.260308         0.081604
| 19>  O        -1.225505        -1.064751         0.320837
| 20>  O        -0.182006         0.690567        -0.532372
| 21>  O        -2.222523         0.946760         0.371696
| 22>  C        -0.051799        -1.594140        -0.277597
| 23>  C         0.792710        -0.355676        -0.573853
| 24>  H         0.427179        -2.272460         0.429119
| 25>  H        -0.329755        -2.143512        -1.180296
| 26>  C         1.889088        -0.098954         0.437394
| 27>  H         1.201678        -0.371764        -1.586752
| 28>  H         1.445101        -0.101702         1.439360
| 29>  H         2.578267        -0.949949         0.397539
| 30>  C         2.635772         1.198547         0.189525
| 31>  H         3.412859         1.351130         0.940135
| 32>  H         3.115998         1.194485        -0.792709
| 33>  H         1.956623         2.051477         0.226739
| 34> *
| 35>
| 36>
| 37>
| 38>
| 39>                          ****END OF INPUT****
 Total Charge           Charge          ....    0
 Multiplicity           Mult            ....    1
 Number of Electrons    NEL             ....   62
Dispersion correction           -0.013344385
FINAL SINGLE POINT ENERGY      -420.250700019876
Dispersion correction            ... done
Dispersion correction           -0.013218311
FINAL SINGLE POINT ENERGY      -420.253626634759
Dispersion correction            ... done
Dispersion correction           -0.013207300
FINAL SINGLE POINT ENERGY      -420.253702416320
Dispersion correction            ... done
FINAL SINGLE POINT ENERGY      -420.253716254612
FINAL SINGLE POINT ENERGY      -420.253724276118
FINAL SINGLE POINT ENERGY      -420.253731305015
FINAL SINGLE POINT ENERGY      -420.253739575518
Dispersion correction           -0.013242369
FINAL SINGLE POINT ENERGY      -420.253742116902
Dispersion correction            ... done
Dispersion correction           -0.013244390
FINAL SINGLE POINT ENERGY      -420.253743486469
Dispersion correction            ... done
                    ***********************HURRAY********************

CARTESIAN COORDINATES (ANGSTROEM)
---------------------------------
  C     -1.296435    0.281237    0.090387
  O     -1.213370   -1.056234    0.372055
  O     -0.176458    0.686231   -0.583519
  O     -2.215383    0.989820    0.389667
  C     -0.066990   -1.610801   -0.276884
  C      0.800638   -0.375733   -0.592095
  H      0.429504   -2.323874    0.410339
  H     -0.387996   -2.152018   -1.192856
  C      1.899064   -0.102782    0.433160
  H      1.227527   -0.416641   -1.615782
  H      1.440460   -0.123028    1.446572
  H      2.608777   -0.958465    0.395793
  C      2.631505    1.217021    0.200523
  H      3.402092    1.390558    0.976867
  H      3.138086    1.228074   -0.786885
  H      1.921836    2.067002    0.223027

 Multiplicity           Mult            ....    1
 Number of Electrons    NEL             ....   62
 Basis Dimension        Dim             ....  152

ORBITAL ENERGIES
----------------

  NO   OCC          E(Eh)            E(eV)
   0   2.0000     -18.813680      -511.9463
   1   2.0000     -18.812343      -511.9099
   2   2.0000     -18.742317      -510.0044
   3   2.0000     -10.053339      -273.5653
   4   2.0000      -9.980604      -271.5861
   5   2.0000      -9.977468      -271.5007
   6   2.0000      -9.921345      -269.9735
   7   2.0000      -9.904593      -269.5177
   8   2.0000      -1.052755       -28.6469
   9   2.0000      -0.945539       -25.7294
  10   2.0000      -0.935914       -25.4675
  11   2.0000      -0.739099       -20.1119
  12   2.0000      -0.676832       -18.4175
  13   2.0000      -0.609633       -16.5890
  14   2.0000      -0.568981       -15.4828
  15   2.0000      -0.538783       -14.6610
  16   2.0000      -0.478670       -13.0253
  17   2.0000      -0.458577       -12.4785
  18   2.0000      -0.454775       -12.3751
  19   2.0000      -0.411194       -11.1891
  20   2.0000      -0.391830       -10.6622
  21   2.0000      -0.386381       -10.5140
  22   2.0000      -0.374978       -10.2037
  23   2.0000      -0.357459        -9.7270
  24   2.0000      -0.336297        -9.1511
  25   2.0000      -0.324459        -8.8290
  26   2.0000      -0.317279        -8.6336
  27   2.0000      -0.311431        -8.4745
  28   2.0000      -0.263625        -7.1736
  29   2.0000      -0.262776        -7.1505
  30   2.0000      -0.244506        -6.6533
  31   0.0000      -0.004165        -0.1133
  32   0.0000       0.018815         0.5120
  33   0.0000       0.037512         1.0207
  34   0.0000       0.042193         1.1481
  35   0.0000       0.049184         1.3384

MULLIKEN ATOMIC CHARGES
-----------------------
   0 C :    0.259416
   1 O :   -0.276729
   2 O :   -0.265097
   3 O :   -0.156417
   4 C :    0.223685
   5 C :   -0.029951
   6 H :    0.038573
   7 H :    0.042428
   8 C :   -0.009024
   9 H :    0.033307
  10 H :    0.027127
  11 H :    0.029125
  12 C :   -0.033038
  13 H :    0.037502
  14 H :    0.027344
  15 H :    0.051750
Sum of atomic charges:   -0.0000000

LOEWDIN ATOMIC CHARGES
----------------------
   0 C :    0.054966
   1 O :   -0.085749
   2 O :   -0.082785
   3 O :   -0.133814
   4 C :    0.070472
   5 C :    0.047065
   6 H :    0.031941
   7 H :    0.027542
   8 C :   -0.058943
   9 H :    0.029934
  10 H :    0.034187
  11 H :    0.034610
  12 C :   -0.071195
  13 H :    0.034620
  14 H :    0.030032
  15 H :    0.037116

  Mayer bond orders larger than 0.100000
B(  0-C ,  1-O ) :   1.0797 B(  0-C ,  2-O ) :   1.0834 B(  0-C ,  3-O ) :   2.1810
B(  1-O ,  4-C ) :   0.9662 B(  2-O ,  5-C ) :   0.9676 B(  4-C ,  5-C ) :   1.0488
B(  4-C ,  6-H ) :   0.9417 B(  4-C ,  7-H ) :   0.9323 B(  5-C ,  8-C ) :   1.0344
B(  5-C ,  9-H ) :   0.9227 B(  8-C , 10-H ) :   0.9219 B(  8-C , 11-H ) :   0.9263
B(  8-C , 12-C ) :   1.1141 B( 12-C , 13-H ) :   0.9621 B( 12-C , 14-H ) :   0.9635
B( 12-C , 15-H ) :   0.9636

Dispersion correction           -0.013243958
FINAL SINGLE POINT ENERGY      -420.253743707406

DIPOLE MOMENT
-------------
                                X             Y             Z
Electronic contribution:    -10.99128       0.25381      -0.20738
Nuclear contribution   :     12.62354      -1.29831      -0.19429
                        -----------------------------------------
Total Dipole Moment    :      1.63226      -1.04450      -0.40168
                        -----------------------------------------
Magnitude (a.u.)       :      1.97904
Magnitude (Debye)      :      5.03033

Dispersion correction in the Hessian             ... done   (      0.7 sec)

VIBRATIONAL FREQUENCIES
-----------------------

Scaling factor for frequencies =  1.000000000  (already applied!)

   0:         0.00 cm**-1
   1:         0.00 cm**-1
   2:         0.00 cm**-1
   3:         0.00 cm**-1
   4:         0.00 cm**-1
   5:         0.00 cm**-1
   6:        71.90 cm**-1
   7:       128.02 cm**-1
   8:       152.57 cm**-1
   9:       225.92 cm**-1
  10:       239.59 cm**-1
  11:       375.02 cm**-1
  12:       445.58 cm**-1
  13:       530.30 cm**-1
  14:       691.13 cm**-1
  15:       729.15 cm**-1
  16:       739.64 cm**-1
  17:       797.53 cm**-1
  18:       820.46 cm**-1
  19:       881.71 cm**-1
  20:       955.95 cm**-1
  21:       974.72 cm**-1
  22:       987.79 cm**-1
  23:      1056.57 cm**-1
  24:      1074.26 cm**-1
  25:      1092.08 cm**-1
  26:      1105.80 cm**-1
  27:      1134.28 cm**-1
  28:      1195.75 cm**-1
  29:      1245.98 cm**-1
  30:      1261.80 cm**-1
  31:      1303.21 cm**-1
  32:      1340.25 cm**-1
  33:      1355.47 cm**-1
  34:      1357.83 cm**-1
  35:      1402.52 cm**-1
  36:      1418.79 cm**-1
  37:      1431.86 cm**-1
  38:      1446.21 cm**-1
  39:      1902.63 cm**-1
  40:      2962.93 cm**-1
  41:      2977.83 cm**-1
  42:      2978.27 cm**-1
  43:      3001.85 cm**-1
  44:      3018.66 cm**-1
  45:      3052.65 cm**-1
  46:      3063.96 cm**-1
  47:      3081.73 cm**-1

IR SPECTRUM
-----------

 Mode   freq       eps      Int      T**2         TX        TY        TZ
       cm**-1   L/(mol*cm) km/mol    a.u.
----------------------------------------------------------------------------
  6:     71.90   0.000329    1.66  0.001428  (-0.030095 -0.015706 -0.016614)
  7:    128.02   0.000054    0.27  0.000131  (-0.003322 -0.009036  0.006226)
  8:    152.57   0.000038    0.19  0.000078  (-0.002442 -0.006677  0.005200)
  9:    225.92   0.000273    1.38  0.000377  (-0.015241 -0.004749 -0.011046)
 10:    239.59   0.000003    0.02  0.000005  (-0.001559  0.000518 -0.001363)
 11:    375.02   0.000018    0.09  0.000015  ( 0.002623 -0.002226  0.001734)
 12:    445.58   0.000293    1.48  0.000206  (-0.010398 -0.003442 -0.009250)
 13:    530.30   0.000034    0.17  0.000020  (-0.002598 -0.001985  0.003018)
 14:    691.13   0.000167    0.85  0.000076  ( 0.005131 -0.006983 -0.000644)
 15:    729.15   0.001456    7.36  0.000623  ( 0.000357  0.011280  0.022269)
 16:    739.64   0.002724   13.76  0.001149  (-0.027657 -0.004971 -0.018960)
 17:    797.53   0.000282    1.43  0.000111  ( 0.009109 -0.000135 -0.005248)
 18:    820.46   0.001108    5.60  0.000422  ( 0.000084 -0.005848 -0.019680)
 19:    881.71   0.000400    2.02  0.000142  (-0.004329  0.009889  0.005014)
 20:    955.95   0.001023    5.17  0.000334  (-0.012881  0.012616  0.002959)
 21:    974.72   0.010177   51.43  0.003258  ( 0.048140 -0.029885  0.006893)
 22:    987.79   0.000328    1.66  0.000104  (-0.007564 -0.005457 -0.004066)
 23:   1056.57   0.011557   58.40  0.003413  ( 0.055410 -0.017050 -0.007238)
 24:   1074.26   0.007158   36.17  0.002079  (-0.038376  0.010047  0.022486)
 25:   1092.08   0.035500  179.40  0.010144  (-0.082597 -0.045893  0.034866)
 26:   1105.80   0.029761  150.40  0.008399  (-0.000263  0.091618 -0.002198)
 27:   1134.28   0.001266    6.40  0.000348  ( 0.004854 -0.017817  0.002686)
 28:   1195.75   0.001598    8.08  0.000417  (-0.015638  0.011653 -0.006061)
 29:   1245.98   0.000391    1.97  0.000098  (-0.005125 -0.005567  0.006372)
 30:   1261.80   0.003951   19.97  0.000977  ( 0.027374  0.010894 -0.010446)
 31:   1303.21   0.001009    5.10  0.000242  (-0.003434  0.013361 -0.007156)
 32:   1340.25   0.005277   26.67  0.001229  ( 0.026546  0.020957 -0.009208)
 33:   1355.47   0.001279    6.47  0.000295  ( 0.009051  0.012398 -0.007677)
 34:   1357.83   0.001829    9.24  0.000420  ( 0.001951 -0.017664  0.010219)
 35:   1402.52   0.000271    1.37  0.000060  ( 0.001246  0.001077 -0.007590)
 36:   1418.79   0.001420    7.18  0.000312  (-0.011546  0.010930  0.007718)
 37:   1431.86   0.001751    8.85  0.000382  (-0.010641  0.000446 -0.016376)
 38:   1446.21   0.001537    7.77  0.000332  (-0.011859 -0.012381  0.006139)
 39:   1902.63   0.113025  571.18  0.018538  (-0.110585  0.074040  0.028758)
 40:   2962.93   0.002535   12.81  0.000267  ( 0.001492 -0.013058  0.009710)
 41:   2977.83   0.004867   24.60  0.000510  (-0.013776 -0.017475  0.003862)
 42:   2978.27   0.005490   27.75  0.000575  ( 0.000811 -0.021656 -0.010278)
 43:   3001.85   0.001045    5.28  0.000109  ( 0.001565  0.000121 -0.010302)
 44:   3018.66   0.006219   31.43  0.000643  ( 0.016076 -0.009076 -0.017382)
 45:   3052.65   0.002792   14.11  0.000285  (-0.009490  0.004787 -0.013133)
 46:   3063.96   0.003850   19.46  0.000392  ( 0.002011 -0.005819 -0.018820)
 47:   3081.73   0.001843    9.31  0.000187  ( 0.012280 -0.004946  0.003373)

--------------------------
THERMOCHEMISTRY AT 298.15K
--------------------------

Temperature         ... 298.15 K
Pressure            ... 1.00 atm
Total Mass          ... 116.12 AMU

Throughout the following assumptions are being made:
  (1) The electronic state is orbitally nondegenerate
  (2) There are no thermally accessible electronically excited states
  (3) Hindered rotations indicated by low frequency modes are not
      treated as such but are treated as vibrations and this may
      cause some error
  (4) All equations used are the standard statistical mechanics
      equations for an ideal gas
  (5) All vibrations are strictly harmonic

freq.      71.90  E(vib)   ...       0.50
freq.     128.02  E(vib)   ...       0.43
freq.     152.57  E(vib)   ...       0.40
freq.     225.92  E(vib)   ...       0.33
freq.     239.59  E(vib)   ...       0.31
freq.     375.02  E(vib)   ...       0.21
freq.     445.58  E(vib)   ...       0.17
freq.     530.30  E(vib)   ...       0.13
freq.     691.13  E(vib)   ...       0.07
freq.     729.15  E(vib)   ...       0.06
freq.     739.64  E(vib)   ...       0.06
freq.     797.53  E(vib)   ...       0.05
freq.     820.46  E(vib)   ...       0.05
freq.     881.71  E(vib)   ...       0.04
freq.     955.95  E(vib)   ...       0.03
freq.     974.72  E(vib)   ...       0.03
freq.     987.79  E(vib)   ...       0.02
freq.    1056.57  E(vib)   ...       0.02
freq.    1074.26  E(vib)   ...       0.02
freq.    1092.08  E(vib)   ...       0.02
freq.    1105.80  E(vib)   ...       0.02
freq.    1134.28  E(vib)   ...       0.01
freq.    1195.75  E(vib)   ...       0.01
freq.    1245.98  E(vib)   ...       0.01
freq.    1261.80  E(vib)   ...       0.01
freq.    1303.21  E(vib)   ...       0.01
freq.    1340.25  E(vib)   ...       0.01
freq.    1355.47  E(vib)   ...       0.01
freq.    1357.83  E(vib)   ...       0.01
freq.    1402.52  E(vib)   ...       0.00
freq.    1418.79  E(vib)   ...       0.00
freq.    1431.86  E(vib)   ...       0.00
freq.    1446.21  E(vib)   ...       0.00
freq.    1902.63  E(vib)   ...       0.00
freq.    2962.93  E(vib)   ...       0.00
freq.    2977.83  E(vib)   ...       0.00
freq.    2978.27  E(vib)   ...       0.00
freq.    3001.85  E(vib)   ...       0.00
freq.    3018.66  E(vib)   ...       0.00
freq.    3052.65  E(vib)   ...       0.00
freq.    3063.96  E(vib)   ...       0.00
freq.    3081.73  E(vib)   ...       0.00

------------
INNER ENERGY
------------

The inner energy is: U= E(el) + E(ZPE) + E(vib) + E(rot) + E(trans)
    E(el)   - is the total energy from the electronic structure calculation
              = E(kin-el) + E(nuc-el) + E(el-el) + E(nuc-nuc)
    E(ZPE)  - the the zero temperature vibrational energy from the frequency calculation
    E(vib)  - the the finite temperature correction to E(ZPE) due to population
              of excited vibrational states
    E(rot)  - is the rotational thermal energy
    E(trans)- is the translational thermal energy

Summary of contributions to the inner energy U:
Electronic energy                ...   -420.25374371 Eh
Zero point energy                ...      0.12760059 Eh      80.07 kcal/mol
Thermal vibrational correction   ...      0.00482576 Eh       3.03 kcal/mol
Thermal rotational correction    ...      0.00141627 Eh       0.89 kcal/mol
Thermal translational correction ...      0.00141627 Eh       0.89 kcal/mol
-----------------------------------------------------------------------
Total thermal energy                   -420.11848481 Eh

Summary of corrections to the electronic energy:
(perhaps to be used in another calculation)
Total thermal correction                  0.00765830 Eh       4.81 kcal/mol
Non-thermal (ZPE) correction              0.12760059 Eh      80.07 kcal/mol
-----------------------------------------------------------------------
Total correction                          0.13525889 Eh      84.88 kcal/mol

--------
ENTHALPY
--------

The enthalpy is H = U + kB*T
                kB is Boltzmann's constant
Total free energy                 ...   -420.11848481 Eh
Thermal Enthalpy correction       ...      0.00094421 Eh       0.59 kcal/mol
-----------------------------------------------------------------------
Total Enthalpy                    ...   -420.11754060 Eh

Note: Only C1 symmetry has been detected, increase convergence thresholds
      if your molecule has a higher symmetry. Symmetry factor of 1.0 is
      used for the rotational entropy correction.

Note: Rotational entropy computed according to Herzberg
Infrared and Raman Spectra, Chapter V,1, Van Nostrand Reinhold, 1945
Point Group:  C1, Symmetry Number:   1
Rotational constants in cm-1:     0.124730     0.052488     0.041562

Vibrational entropy computed according to the QRRHO of S. Grimme
Chem.Eur.J. 2012 18 9955

-------
ENTROPY
-------

The entropy contributions are T*S = T*(S(el)+S(vib)+S(rot)+S(trans))
     S(el)   - electronic entropy
     S(vib)  - vibrational entropy
     S(rot)  - rotational entropy
     S(trans)- translational entropy
The entropies will be listed as multiplied by the temperature to get
units of energy

Electronic entropy                ...      0.00000000 Eh      0.00 kcal/mol
Vibrational entropy               ...      0.00824737 Eh      5.18 kcal/mol
Rotational entropy                ...      0.01338636 Eh      8.40 kcal/mol
Translational entropy             ...      0.01908286 Eh     11.97 kcal/mol
-----------------------------------------------------------------------
Final entropy term                ...      0.04071659 Eh     25.55 kcal/mol

In case the symmetry of your molecule has not been determined correctly
or in case you have a reason to use a different symmetry number we print
out the resulting rotational entropy values for sn=1,12 :
 --------------------------------------------------------
|  sn= 1 | S(rot)=       0.01338636 Eh      8.40 kcal/mol|
|  sn= 2 | S(rot)=       0.01273190 Eh      7.99 kcal/mol|
|  sn= 3 | S(rot)=       0.01234907 Eh      7.75 kcal/mol|
|  sn= 4 | S(rot)=       0.01207744 Eh      7.58 kcal/mol|
|  sn= 5 | S(rot)=       0.01186676 Eh      7.45 kcal/mol|
|  sn= 6 | S(rot)=       0.01169461 Eh      7.34 kcal/mol|
|  sn= 7 | S(rot)=       0.01154906 Eh      7.25 kcal/mol|
|  sn= 8 | S(rot)=       0.01142299 Eh      7.17 kcal/mol|
|  sn= 9 | S(rot)=       0.01131178 Eh      7.10 kcal/mol|
|  sn=10 | S(rot)=       0.01121230 Eh      7.04 kcal/mol|
|  sn=11 | S(rot)=       0.01112231 Eh      6.98 kcal/mol|
|  sn=12 | S(rot)=       0.01104015 Eh      6.93 kcal/mol|
 --------------------------------------------------------

-------------------
GIBBS FREE ENERGY
-------------------

The Gibbs free energy is G = H - T*S

                             ****ORCA TERMINATED NORMALLY****
TOTAL RUN TIME: 0 days 0 hours 1 minutes 47 seconds 93 msec
